PSF CMAP CHEQ

       2 !NTITLE
REMARKS PSF for entire system
REMARKS total molecules: 242
REMARKS total complexes: 242

     730 !NATOM
       1    P    0  COM    O    0          0   0.707107         0
       2    P    0  dbn    N    0          0   0.707107         0
       3    P    0  dbs    N    0          0   0.707107         0
       4    P    0  dmr    N    0          0   0.707107         0
       5    P    0  ref  LPA    0          0   0.707107         0
       6    P    1  COM    O    0          0   0.707107         0
       7    P    1  dbn    N    0          0   0.707107         0
       8    P    1  dbs    N    0          0   0.707107         0
       9    P    1  dmr    N    0          0   0.707107         0
      10    P    1  ref  LPA    0          0   0.707107         0
      11    N    2  COM    O    0          0     0.0001         0
      12    N    2   bs    N    0          0     0.0001         0
      13    N    2  ref    N    0          0     0.0001         0
      14    N    3  COM    O    0          0     0.0001         0
      15    N    3   bs    N    0          0     0.0001         0
      16    N    3  ref    N    0          0     0.0001         0
      17    N    4  COM    O    0          0     0.0001         0
      18    N    4   bs    N    0          0     0.0001         0
      19    N    4  ref    N    0          0     0.0001         0
      20    N    5  COM    O    0          0     0.0001         0
      21    N    5   bs    N    0          0     0.0001         0
      22    N    5  ref    N    0          0     0.0001         0
      23    N    6  COM    O    0          0     0.0001         0
      24    N    6   bs    N    0          0     0.0001         0
      25    N    6  ref    N    0          0     0.0001         0
      26    N    7  COM    O    0          0     0.0001         0
      27    N    7   bs    N    0          0     0.0001         0
      28    N    7  ref    N    0          0     0.0001         0
      29    N    8  COM    O    0          0     0.0001         0
      30    N    8   bs    N    0          0     0.0001         0
      31    N    8  ref    N    0          0     0.0001         0
      32    N    9  COM    O    0          0     0.0001         0
      33    N    9   bs    N    0          0     0.0001         0
      34    N    9  ref    N    0          0     0.0001         0
      35    N   10  COM    O    0          0     0.0001         0
      36    N   10   bs    N    0          0     0.0001         0
      37    N   10  ref    N    0          0     0.0001         0
      38    N   11  COM    O    0          0     0.0001         0
      39    N   11   bs    N    0          0     0.0001         0
      40    N   11  ref    N    0          0     0.0001         0
      41    N   12  COM    O    0          0     0.0001         0
      42    N   12   bs    N    0          0     0.0001         0
      43    N   12  ref    N    0          0     0.0001         0
      44    N   13  COM    O    0          0     0.0001         0
      45    N   13   bs    N    0          0     0.0001         0
      46    N   13  ref    N    0          0     0.0001         0
      47    N   14  COM    O    0          0     0.0001         0
      48    N   14   bs    N    0          0     0.0001         0
      49    N   14  ref    N    0          0     0.0001         0
      50    N   15  COM    O    0          0     0.0001         0
      51    N   15   bs    N    0          0     0.0001         0
      52    N   15  ref    N    0          0     0.0001         0
      53    N   16  COM    O    0          0     0.0001         0
      54    N   16   bs    N    0          0     0.0001         0
      55    N   16  ref    N    0          0     0.0001         0
      56    N   17  COM    O    0          0     0.0001         0
      57    N   17   bs    N    0          0     0.0001         0
      58    N   17  ref    N    0          0     0.0001         0
      59    N   18  COM    O    0          0     0.0001         0
      60    N   18   bs    N    0          0     0.0001         0
      61    N   18  ref    N    0          0     0.0001         0
      62    N   19  COM    O    0          0     0.0001         0
      63    N   19   bs    N    0          0     0.0001         0
      64    N   19  ref    N    0          0     0.0001         0
      65    N   20  COM    O    0          0     0.0001         0
      66    N   20   bs    N    0          0     0.0001         0
      67    N   20  ref    N    0          0     0.0001         0
      68    N   21  COM    O    0          0     0.0001         0
      69    N   21   bs    N    0          0     0.0001         0
      70    N   21  ref    N    0          0     0.0001         0
      71    N   22  COM    O    0          0     0.0001         0
      72    N   22   bs    N    0          0     0.0001         0
      73    N   22  ref    N    0          0     0.0001         0
      74    N   23  COM    O    0          0     0.0001         0
      75    N   23   bs    N    0          0     0.0001         0
      76    N   23  ref    N    0          0     0.0001         0
      77    N   24  COM    O    0          0     0.0001         0
      78    N   24   bs    N    0          0     0.0001         0
      79    N   24  ref    N    0          0     0.0001         0
      80    N   25  COM    O    0          0     0.0001         0
      81    N   25   bs    N    0          0     0.0001         0
      82    N   25  ref    N    0          0     0.0001         0
      83    N   26  COM    O    0          0     0.0001         0
      84    N   26   bs    N    0          0     0.0001         0
      85    N   26  ref    N    0          0     0.0001         0
      86    N   27  COM    O    0          0     0.0001         0
      87    N   27   bs    N    0          0     0.0001         0
      88    N   27  ref    N    0          0     0.0001         0
      89    N   28  COM    O    0          0     0.0001         0
      90    N   28   bs    N    0          0     0.0001         0
      91    N   28  ref    N    0          0     0.0001         0
      92    N   29  COM    O    0          0     0.0001         0
      93    N   29   bs    N    0          0     0.0001         0
      94    N   29  ref    N    0          0     0.0001         0
      95    N   30  COM    O    0          0     0.0001         0
      96    N   30   bs    N    0          0     0.0001         0
      97    N   30  ref    N    0          0     0.0001         0
      98    N   31  COM    O    0          0     0.0001         0
      99    N   31   bs    N    0          0     0.0001         0
     100    N   31  ref    N    0          0     0.0001         0
     101    N   32  COM    O    0          0     0.0001         0
     102    N   32   bs    N    0          0     0.0001         0
     103    N   32  ref    N    0          0     0.0001         0
     104    N   33  COM    O    0          0     0.0001         0
     105    N   33   bs    N    0          0     0.0001         0
     106    N   33  ref    N    0          0     0.0001         0
     107    N   34  COM    O    0          0     0.0001         0
     108    N   34   bs    N    0          0     0.0001         0
     109    N   34  ref    N    0          0     0.0001         0
     110    N   35  COM    O    0          0     0.0001         0
     111    N   35   bs    N    0          0     0.0001         0
     112    N   35  ref    N    0          0     0.0001         0
     113    N   36  COM    O    0          0     0.0001         0
     114    N   36   bs    N    0          0     0.0001         0
     115    N   36  ref    N    0          0     0.0001         0
     116    N   37  COM    O    0          0     0.0001         0
     117    N   37   bs    N    0          0     0.0001         0
     118    N   37  ref    N    0          0     0.0001         0
     119    N   38  COM    O    0          0     0.0001         0
     120    N   38   bs    N    0          0     0.0001         0
     121    N   38  ref    N    0          0     0.0001         0
     122    N   39  COM    O    0          0     0.0001         0
     123    N   39   bs    N    0          0     0.0001         0
     124    N   39  ref    N    0          0     0.0001         0
     125    N   40  COM    O    0          0     0.0001         0
     126    N   40   bs    N    0          0     0.0001         0
     127    N   40  ref    N    0          0     0.0001         0
     128    N   41  COM    O    0          0     0.0001         0
     129    N   41   bs    N    0          0     0.0001         0
     130    N   41  ref    N    0          0     0.0001         0
     131    N   42  COM    O    0          0     0.0001         0
     132    N   42   bs    N    0          0     0.0001         0
     133    N   42  ref    N    0          0     0.0001         0
     134    N   43  COM    O    0          0     0.0001         0
     135    N   43   bs    N    0          0     0.0001         0
     136    N   43  ref    N    0          0     0.0001         0
     137    N   44  COM    O    0          0     0.0001         0
     138    N   44   bs    N    0          0     0.0001         0
     139    N   44  ref    N    0          0     0.0001         0
     140    N   45  COM    O    0          0     0.0001         0
     141    N   45   bs    N    0          0     0.0001         0
     142    N   45  ref    N    0          0     0.0001         0
     143    N   46  COM    O    0          0     0.0001         0
     144    N   46   bs    N    0          0     0.0001         0
     145    N   46  ref    N    0          0     0.0001         0
     146    N   47  COM    O    0          0     0.0001         0
     147    N   47   bs    N    0          0     0.0001         0
     148    N   47  ref    N    0          0     0.0001         0
     149    N   48  COM    O    0          0     0.0001         0
     150    N   48   bs    N    0          0     0.0001         0
     151    N   48  ref    N    0          0     0.0001         0
     152    N   49  COM    O    0          0     0.0001         0
     153    N   49   bs    N    0          0     0.0001         0
     154    N   49  ref    N    0          0     0.0001         0
     155    N   50  COM    O    0          0     0.0001         0
     156    N   50   bs    N    0          0     0.0001         0
     157    N   50  ref    N    0          0     0.0001         0
     158    N   51  COM    O    0          0     0.0001         0
     159    N   51   bs    N    0          0     0.0001         0
     160    N   51  ref    N    0          0     0.0001         0
     161    N   52  COM    O    0          0     0.0001         0
     162    N   52   bs    N    0          0     0.0001         0
     163    N   52  ref    N    0          0     0.0001         0
     164    N   53  COM    O    0          0     0.0001         0
     165    N   53   bs    N    0          0     0.0001         0
     166    N   53  ref    N    0          0     0.0001         0
     167    N   54  COM    O    0          0     0.0001         0
     168    N   54   bs    N    0          0     0.0001         0
     169    N   54  ref    N    0          0     0.0001         0
     170    N   55  COM    O    0          0     0.0001         0
     171    N   55   bs    N    0          0     0.0001         0
     172    N   55  ref    N    0          0     0.0001         0
     173    N   56  COM    O    0          0     0.0001         0
     174    N   56   bs    N    0          0     0.0001         0
     175    N   56  ref    N    0          0     0.0001         0
     176    N   57  COM    O    0          0     0.0001         0
     177    N   57   bs    N    0          0     0.0001         0
     178    N   57  ref    N    0          0     0.0001         0
     179    N   58  COM    O    0          0     0.0001         0
     180    N   58   bs    N    0          0     0.0001         0
     181    N   58  ref    N    0          0     0.0001         0
     182    N   59  COM    O    0          0     0.0001         0
     183    N   59   bs    N    0          0     0.0001         0
     184    N   59  ref    N    0          0     0.0001         0
     185    N   60  COM    O    0          0     0.0001         0
     186    N   60   bs    N    0          0     0.0001         0
     187    N   60  ref    N    0          0     0.0001         0
     188    N   61  COM    O    0          0     0.0001         0
     189    N   61   bs    N    0          0     0.0001         0
     190    N   61  ref    N    0          0     0.0001         0
     191    N   62  COM    O    0          0     0.0001         0
     192    N   62   bs    N    0          0     0.0001         0
     193    N   62  ref    N    0          0     0.0001         0
     194    N   63  COM    O    0          0     0.0001         0
     195    N   63   bs    N    0          0     0.0001         0
     196    N   63  ref    N    0          0     0.0001         0
     197    N   64  COM    O    0          0     0.0001         0
     198    N   64   bs    N    0          0     0.0001         0
     199    N   64  ref    N    0          0     0.0001         0
     200    N   65  COM    O    0          0     0.0001         0
     201    N   65   bs    N    0          0     0.0001         0
     202    N   65  ref    N    0          0     0.0001         0
     203    N   66  COM    O    0          0     0.0001         0
     204    N   66   bs    N    0          0     0.0001         0
     205    N   66  ref    N    0          0     0.0001         0
     206    N   67  COM    O    0          0     0.0001         0
     207    N   67   bs    N    0          0     0.0001         0
     208    N   67  ref    N    0          0     0.0001         0
     209    N   68  COM    O    0          0     0.0001         0
     210    N   68   bs    N    0          0     0.0001         0
     211    N   68  ref    N    0          0     0.0001         0
     212    N   69  COM    O    0          0     0.0001         0
     213    N   69   bs    N    0          0     0.0001         0
     214    N   69  ref    N    0          0     0.0001         0
     215    N   70  COM    O    0          0     0.0001         0
     216    N   70   bs    N    0          0     0.0001         0
     217    N   70  ref    N    0          0     0.0001         0
     218    N   71  COM    O    0          0     0.0001         0
     219    N   71   bs    N    0          0     0.0001         0
     220    N   71  ref    N    0          0     0.0001         0
     221    N   72  COM    O    0          0     0.0001         0
     222    N   72   bs    N    0          0     0.0001         0
     223    N   72  ref    N    0          0     0.0001         0
     224    N   73  COM    O    0          0     0.0001         0
     225    N   73   bs    N    0          0     0.0001         0
     226    N   73  ref    N    0          0     0.0001         0
     227    N   74  COM    O    0          0     0.0001         0
     228    N   74   bs    N    0          0     0.0001         0
     229    N   74  ref    N    0          0     0.0001         0
     230    N   75  COM    O    0          0     0.0001         0
     231    N   75   bs    N    0          0     0.0001         0
     232    N   75  ref    N    0          0     0.0001         0
     233    N   76  COM    O    0          0     0.0001         0
     234    N   76   bs    N    0          0     0.0001         0
     235    N   76  ref    N    0          0     0.0001         0
     236    N   77  COM    O    0          0     0.0001         0
     237    N   77   bs    N    0          0     0.0001         0
     238    N   77  ref    N    0          0     0.0001         0
     239    N   78  COM    O    0          0     0.0001         0
     240    N   78   bs    N    0          0     0.0001         0
     241    N   78  ref    N    0          0     0.0001         0
     242    N   79  COM    O    0          0     0.0001         0
     243    N   79   bs    N    0          0     0.0001         0
     244    N   79  ref    N    0          0     0.0001         0
     245    N   80  COM    O    0          0     0.0001         0
     246    N   80   bs    N    0          0     0.0001         0
     247    N   80  ref    N    0          0     0.0001         0
     248    N   81  COM    O    0          0     0.0001         0
     249    N   81   bs    N    0          0     0.0001         0
     250    N   81  ref    N    0          0     0.0001         0
     251    N   82  COM    O    0          0     0.0001         0
     252    N   82   bs    N    0          0     0.0001         0
     253    N   82  ref    N    0          0     0.0001         0
     254    N   83  COM    O    0          0     0.0001         0
     255    N   83   bs    N    0          0     0.0001         0
     256    N   83  ref    N    0          0     0.0001         0
     257    N   84  COM    O    0          0     0.0001         0
     258    N   84   bs    N    0          0     0.0001         0
     259    N   84  ref    N    0          0     0.0001         0
     260    N   85  COM    O    0          0     0.0001         0
     261    N   85   bs    N    0          0     0.0001         0
     262    N   85  ref    N    0          0     0.0001         0
     263    N   86  COM    O    0          0     0.0001         0
     264    N   86   bs    N    0          0     0.0001         0
     265    N   86  ref    N    0          0     0.0001         0
     266    N   87  COM    O    0          0     0.0001         0
     267    N   87   bs    N    0          0     0.0001         0
     268    N   87  ref    N    0          0     0.0001         0
     269    N   88  COM    O    0          0     0.0001         0
     270    N   88   bs    N    0          0     0.0001         0
     271    N   88  ref    N    0          0     0.0001         0
     272    N   89  COM    O    0          0     0.0001         0
     273    N   89   bs    N    0          0     0.0001         0
     274    N   89  ref    N    0          0     0.0001         0
     275    N   90  COM    O    0          0     0.0001         0
     276    N   90   bs    N    0          0     0.0001         0
     277    N   90  ref    N    0          0     0.0001         0
     278    N   91  COM    O    0          0     0.0001         0
     279    N   91   bs    N    0          0     0.0001         0
     280    N   91  ref    N    0          0     0.0001         0
     281    N   92  COM    O    0          0     0.0001         0
     282    N   92   bs    N    0          0     0.0001         0
     283    N   92  ref    N    0          0     0.0001         0
     284    N   93  COM    O    0          0     0.0001         0
     285    N   93   bs    N    0          0     0.0001         0
     286    N   93  ref    N    0          0     0.0001         0
     287    N   94  COM    O    0          0     0.0001         0
     288    N   94   bs    N    0          0     0.0001         0
     289    N   94  ref    N    0          0     0.0001         0
     290    N   95  COM    O    0          0     0.0001         0
     291    N   95   bs    N    0          0     0.0001         0
     292    N   95  ref    N    0          0     0.0001         0
     293    N   96  COM    O    0          0     0.0001         0
     294    N   96   bs    N    0          0     0.0001         0
     295    N   96  ref    N    0          0     0.0001         0
     296    N   97  COM    O    0          0     0.0001         0
     297    N   97   bs    N    0          0     0.0001         0
     298    N   97  ref    N    0          0     0.0001         0
     299    N   98  COM    O    0          0     0.0001         0
     300    N   98   bs    N    0          0     0.0001         0
     301    N   98  ref    N    0          0     0.0001         0
     302    N   99  COM    O    0          0     0.0001         0
     303    N   99   bs    N    0          0     0.0001         0
     304    N   99  ref    N    0          0     0.0001         0
     305    N  100  COM    O    0          0     0.0001         0
     306    N  100   bs    N    0          0     0.0001         0
     307    N  100  ref    N    0          0     0.0001         0
     308    N  101  COM    O    0          0     0.0001         0
     309    N  101   bs    N    0          0     0.0001         0
     310    N  101  ref    N    0          0     0.0001         0
     311    N  102  COM    O    0          0     0.0001         0
     312    N  102   bs    N    0          0     0.0001         0
     313    N  102  ref    N    0          0     0.0001         0
     314    N  103  COM    O    0          0     0.0001         0
     315    N  103   bs    N    0          0     0.0001         0
     316    N  103  ref    N    0          0     0.0001         0
     317    N  104  COM    O    0          0     0.0001         0
     318    N  104   bs    N    0          0     0.0001         0
     319    N  104  ref    N    0          0     0.0001         0
     320    N  105  COM    O    0          0     0.0001         0
     321    N  105   bs    N    0          0     0.0001         0
     322    N  105  ref    N    0          0     0.0001         0
     323    N  106  COM    O    0          0     0.0001         0
     324    N  106   bs    N    0          0     0.0001         0
     325    N  106  ref    N    0          0     0.0001         0
     326    N  107  COM    O    0          0     0.0001         0
     327    N  107   bs    N    0          0     0.0001         0
     328    N  107  ref    N    0          0     0.0001         0
     329    N  108  COM    O    0          0     0.0001         0
     330    N  108   bs    N    0          0     0.0001         0
     331    N  108  ref    N    0          0     0.0001         0
     332    N  109  COM    O    0          0     0.0001         0
     333    N  109   bs    N    0          0     0.0001         0
     334    N  109  ref    N    0          0     0.0001         0
     335    N  110  COM    O    0          0     0.0001         0
     336    N  110   bs    N    0          0     0.0001         0
     337    N  110  ref    N    0          0     0.0001         0
     338    N  111  COM    O    0          0     0.0001         0
     339    N  111   bs    N    0          0     0.0001         0
     340    N  111  ref    N    0          0     0.0001         0
     341    N  112  COM    O    0          0     0.0001         0
     342    N  112   bs    N    0          0     0.0001         0
     343    N  112  ref    N    0          0     0.0001         0
     344    N  113  COM    O    0          0     0.0001         0
     345    N  113   bs    N    0          0     0.0001         0
     346    N  113  ref    N    0          0     0.0001         0
     347    N  114  COM    O    0          0     0.0001         0
     348    N  114   bs    N    0          0     0.0001         0
     349    N  114  ref    N    0          0     0.0001         0
     350    N  115  COM    O    0          0     0.0001         0
     351    N  115   bs    N    0          0     0.0001         0
     352    N  115  ref    N    0          0     0.0001         0
     353    N  116  COM    O    0          0     0.0001         0
     354    N  116   bs    N    0          0     0.0001         0
     355    N  116  ref    N    0          0     0.0001         0
     356    N  117  COM    O    0          0     0.0001         0
     357    N  117   bs    N    0          0     0.0001         0
     358    N  117  ref    N    0          0     0.0001         0
     359    N  118  COM    O    0          0     0.0001         0
     360    N  118   bs    N    0          0     0.0001         0
     361    N  118  ref    N    0          0     0.0001         0
     362    N  119  COM    O    0          0     0.0001         0
     363    N  119   bs    N    0          0     0.0001         0
     364    N  119  ref    N    0          0     0.0001         0
     365    N  120  COM    O    0          0     0.0001         0
     366    N  120   bs    N    0          0     0.0001         0
     367    N  120  ref    N    0          0     0.0001         0
     368    N  121  COM    O    0          0     0.0001         0
     369    N  121   bs    N    0          0     0.0001         0
     370    N  121  ref    N    0          0     0.0001         0
     371    N  122  COM    O    0          0     0.0001         0
     372    N  122   bs    N    0          0     0.0001         0
     373    N  122  ref    N    0          0     0.0001         0
     374    N  123  COM    O    0          0     0.0001         0
     375    N  123   bs    N    0          0     0.0001         0
     376    N  123  ref    N    0          0     0.0001         0
     377    N  124  COM    O    0          0     0.0001         0
     378    N  124   bs    N    0          0     0.0001         0
     379    N  124  ref    N    0          0     0.0001         0
     380    N  125  COM    O    0          0     0.0001         0
     381    N  125   bs    N    0          0     0.0001         0
     382    N  125  ref    N    0          0     0.0001         0
     383    N  126  COM    O    0          0     0.0001         0
     384    N  126   bs    N    0          0     0.0001         0
     385    N  126  ref    N    0          0     0.0001         0
     386    N  127  COM    O    0          0     0.0001         0
     387    N  127   bs    N    0          0     0.0001         0
     388    N  127  ref    N    0          0     0.0001         0
     389    N  128  COM    O    0          0     0.0001         0
     390    N  128   bs    N    0          0     0.0001         0
     391    N  128  ref    N    0          0     0.0001         0
     392    N  129  COM    O    0          0     0.0001         0
     393    N  129   bs    N    0          0     0.0001         0
     394    N  129  ref    N    0          0     0.0001         0
     395    N  130  COM    O    0          0     0.0001         0
     396    N  130   bs    N    0          0     0.0001         0
     397    N  130  ref    N    0          0     0.0001         0
     398    N  131  COM    O    0          0     0.0001         0
     399    N  131   bs    N    0          0     0.0001         0
     400    N  131  ref    N    0          0     0.0001         0
     401    N  132  COM    O    0          0     0.0001         0
     402    N  132   bs    N    0          0     0.0001         0
     403    N  132  ref    N    0          0     0.0001         0
     404    N  133  COM    O    0          0     0.0001         0
     405    N  133   bs    N    0          0     0.0001         0
     406    N  133  ref    N    0          0     0.0001         0
     407    N  134  COM    O    0          0     0.0001         0
     408    N  134   bs    N    0          0     0.0001         0
     409    N  134  ref    N    0          0     0.0001         0
     410    N  135  COM    O    0          0     0.0001         0
     411    N  135   bs    N    0          0     0.0001         0
     412    N  135  ref    N    0          0     0.0001         0
     413    N  136  COM    O    0          0     0.0001         0
     414    N  136   bs    N    0          0     0.0001         0
     415    N  136  ref    N    0          0     0.0001         0
     416    N  137  COM    O    0          0     0.0001         0
     417    N  137   bs    N    0          0     0.0001         0
     418    N  137  ref    N    0          0     0.0001         0
     419    N  138  COM    O    0          0     0.0001         0
     420    N  138   bs    N    0          0     0.0001         0
     421    N  138  ref    N    0          0     0.0001         0
     422    N  139  COM    O    0          0     0.0001         0
     423    N  139   bs    N    0          0     0.0001         0
     424    N  139  ref    N    0          0     0.0001         0
     425    N  140  COM    O    0          0     0.0001         0
     426    N  140   bs    N    0          0     0.0001         0
     427    N  140  ref    N    0          0     0.0001         0
     428    N  141  COM    O    0          0     0.0001         0
     429    N  141   bs    N    0          0     0.0001         0
     430    N  141  ref    N    0          0     0.0001         0
     431    N  142  COM    O    0          0     0.0001         0
     432    N  142   bs    N    0          0     0.0001         0
     433    N  142  ref    N    0          0     0.0001         0
     434    N  143  COM    O    0          0     0.0001         0
     435    N  143   bs    N    0          0     0.0001         0
     436    N  143  ref    N    0          0     0.0001         0
     437    N  144  COM    O    0          0     0.0001         0
     438    N  144   bs    N    0          0     0.0001         0
     439    N  144  ref    N    0          0     0.0001         0
     440    N  145  COM    O    0          0     0.0001         0
     441    N  145   bs    N    0          0     0.0001         0
     442    N  145  ref    N    0          0     0.0001         0
     443    N  146  COM    O    0          0     0.0001         0
     444    N  146   bs    N    0          0     0.0001         0
     445    N  146  ref    N    0          0     0.0001         0
     446    N  147  COM    O    0          0     0.0001         0
     447    N  147   bs    N    0          0     0.0001         0
     448    N  147  ref    N    0          0     0.0001         0
     449    N  148  COM    O    0          0     0.0001         0
     450    N  148   bs    N    0          0     0.0001         0
     451    N  148  ref    N    0          0     0.0001         0
     452    N  149  COM    O    0          0     0.0001         0
     453    N  149   bs    N    0          0     0.0001         0
     454    N  149  ref    N    0          0     0.0001         0
     455    N  150  COM    O    0          0     0.0001         0
     456    N  150   bs    N    0          0     0.0001         0
     457    N  150  ref    N    0          0     0.0001         0
     458    N  151  COM    O    0          0     0.0001         0
     459    N  151   bs    N    0          0     0.0001         0
     460    N  151  ref    N    0          0     0.0001         0
     461    N  152  COM    O    0          0     0.0001         0
     462    N  152   bs    N    0          0     0.0001         0
     463    N  152  ref    N    0          0     0.0001         0
     464    N  153  COM    O    0          0     0.0001         0
     465    N  153   bs    N    0          0     0.0001         0
     466    N  153  ref    N    0          0     0.0001         0
     467    N  154  COM    O    0          0     0.0001         0
     468    N  154   bs    N    0          0     0.0001         0
     469    N  154  ref    N    0          0     0.0001         0
     470    N  155  COM    O    0          0     0.0001         0
     471    N  155   bs    N    0          0     0.0001         0
     472    N  155  ref    N    0          0     0.0001         0
     473    N  156  COM    O    0          0     0.0001         0
     474    N  156   bs    N    0          0     0.0001         0
     475    N  156  ref    N    0          0     0.0001         0
     476    N  157  COM    O    0          0     0.0001         0
     477    N  157   bs    N    0          0     0.0001         0
     478    N  157  ref    N    0          0     0.0001         0
     479    N  158  COM    O    0          0     0.0001         0
     480    N  158   bs    N    0          0     0.0001         0
     481    N  158  ref    N    0          0     0.0001         0
     482    N  159  COM    O    0          0     0.0001         0
     483    N  159   bs    N    0          0     0.0001         0
     484    N  159  ref    N    0          0     0.0001         0
     485    N  160  COM    O    0          0     0.0001         0
     486    N  160   bs    N    0          0     0.0001         0
     487    N  160  ref    N    0          0     0.0001         0
     488    N  161  COM    O    0          0     0.0001         0
     489    N  161   bs    N    0          0     0.0001         0
     490    N  161  ref    N    0          0     0.0001         0
     491    N  162  COM    O    0          0     0.0001         0
     492    N  162   bs    N    0          0     0.0001         0
     493    N  162  ref    N    0          0     0.0001         0
     494    N  163  COM    O    0          0     0.0001         0
     495    N  163   bs    N    0          0     0.0001         0
     496    N  163  ref    N    0          0     0.0001         0
     497    N  164  COM    O    0          0     0.0001         0
     498    N  164   bs    N    0          0     0.0001         0
     499    N  164  ref    N    0          0     0.0001         0
     500    N  165  COM    O    0          0     0.0001         0
     501    N  165   bs    N    0          0     0.0001         0
     502    N  165  ref    N    0          0     0.0001         0
     503    N  166  COM    O    0          0     0.0001         0
     504    N  166   bs    N    0          0     0.0001         0
     505    N  166  ref    N    0          0     0.0001         0
     506    N  167  COM    O    0          0     0.0001         0
     507    N  167   bs    N    0          0     0.0001         0
     508    N  167  ref    N    0          0     0.0001         0
     509    N  168  COM    O    0          0     0.0001         0
     510    N  168   bs    N    0          0     0.0001         0
     511    N  168  ref    N    0          0     0.0001         0
     512    N  169  COM    O    0          0     0.0001         0
     513    N  169   bs    N    0          0     0.0001         0
     514    N  169  ref    N    0          0     0.0001         0
     515    N  170  COM    O    0          0     0.0001         0
     516    N  170   bs    N    0          0     0.0001         0
     517    N  170  ref    N    0          0     0.0001         0
     518    N  171  COM    O    0          0     0.0001         0
     519    N  171   bs    N    0          0     0.0001         0
     520    N  171  ref    N    0          0     0.0001         0
     521    N  172  COM    O    0          0     0.0001         0
     522    N  172   bs    N    0          0     0.0001         0
     523    N  172  ref    N    0          0     0.0001         0
     524    N  173  COM    O    0          0     0.0001         0
     525    N  173   bs    N    0          0     0.0001         0
     526    N  173  ref    N    0          0     0.0001         0
     527    N  174  COM    O    0          0     0.0001         0
     528    N  174   bs    N    0          0     0.0001         0
     529    N  174  ref    N    0          0     0.0001         0
     530    N  175  COM    O    0          0     0.0001         0
     531    N  175   bs    N    0          0     0.0001         0
     532    N  175  ref    N    0          0     0.0001         0
     533    N  176  COM    O    0          0     0.0001         0
     534    N  176   bs    N    0          0     0.0001         0
     535    N  176  ref    N    0          0     0.0001         0
     536    N  177  COM    O    0          0     0.0001         0
     537    N  177   bs    N    0          0     0.0001         0
     538    N  177  ref    N    0          0     0.0001         0
     539    N  178  COM    O    0          0     0.0001         0
     540    N  178   bs    N    0          0     0.0001         0
     541    N  178  ref    N    0          0     0.0001         0
     542    N  179  COM    O    0          0     0.0001         0
     543    N  179   bs    N    0          0     0.0001         0
     544    N  179  ref    N    0          0     0.0001         0
     545    N  180  COM    O    0          0     0.0001         0
     546    N  180   bs    N    0          0     0.0001         0
     547    N  180  ref    N    0          0     0.0001         0
     548    N  181  COM    O    0          0     0.0001         0
     549    N  181   bs    N    0          0     0.0001         0
     550    N  181  ref    N    0          0     0.0001         0
     551    N  182  COM    O    0          0     0.0001         0
     552    N  182   bs    N    0          0     0.0001         0
     553    N  182  ref    N    0          0     0.0001         0
     554    N  183  COM    O    0          0     0.0001         0
     555    N  183   bs    N    0          0     0.0001         0
     556    N  183  ref    N    0          0     0.0001         0
     557    N  184  COM    O    0          0     0.0001         0
     558    N  184   bs    N    0          0     0.0001         0
     559    N  184  ref    N    0          0     0.0001         0
     560    N  185  COM    O    0          0     0.0001         0
     561    N  185   bs    N    0          0     0.0001         0
     562    N  185  ref    N    0          0     0.0001         0
     563    N  186  COM    O    0          0     0.0001         0
     564    N  186   bs    N    0          0     0.0001         0
     565    N  186  ref    N    0          0     0.0001         0
     566    N  187  COM    O    0          0     0.0001         0
     567    N  187   bs    N    0          0     0.0001         0
     568    N  187  ref    N    0          0     0.0001         0
     569    N  188  COM    O    0          0     0.0001         0
     570    N  188   bs    N    0          0     0.0001         0
     571    N  188  ref    N    0          0     0.0001         0
     572    N  189  COM    O    0          0     0.0001         0
     573    N  189   bs    N    0          0     0.0001         0
     574    N  189  ref    N    0          0     0.0001         0
     575    N  190  COM    O    0          0     0.0001         0
     576    N  190   bs    N    0          0     0.0001         0
     577    N  190  ref    N    0          0     0.0001         0
     578    N  191  COM    O    0          0     0.0001         0
     579    N  191   bs    N    0          0     0.0001         0
     580    N  191  ref    N    0          0     0.0001         0
     581    N  192  COM    O    0          0     0.0001         0
     582    N  192   bs    N    0          0     0.0001         0
     583    N  192  ref    N    0          0     0.0001         0
     584    N  193  COM    O    0          0     0.0001         0
     585    N  193   bs    N    0          0     0.0001         0
     586    N  193  ref    N    0          0     0.0001         0
     587    N  194  COM    O    0          0     0.0001         0
     588    N  194   bs    N    0          0     0.0001         0
     589    N  194  ref    N    0          0     0.0001         0
     590    N  195  COM    O    0          0     0.0001         0
     591    N  195   bs    N    0          0     0.0001         0
     592    N  195  ref    N    0          0     0.0001         0
     593    N  196  COM    O    0          0     0.0001         0
     594    N  196   bs    N    0          0     0.0001         0
     595    N  196  ref    N    0          0     0.0001         0
     596    N  197  COM    O    0          0     0.0001         0
     597    N  197   bs    N    0          0     0.0001         0
     598    N  197  ref    N    0          0     0.0001         0
     599    N  198  COM    O    0          0     0.0001         0
     600    N  198   bs    N    0          0     0.0001         0
     601    N  198  ref    N    0          0     0.0001         0
     602    N  199  COM    O    0          0     0.0001         0
     603    N  199   bs    N    0          0     0.0001         0
     604    N  199  ref    N    0          0     0.0001         0
     605    N  200  COM    O    0          0     0.0001         0
     606    N  200   bs    N    0          0     0.0001         0
     607    N  200  ref    N    0          0     0.0001         0
     608    N  201  COM    O    0          0     0.0001         0
     609    N  201   bs    N    0          0     0.0001         0
     610    N  201  ref    N    0          0     0.0001         0
     611    N  202  COM    O    0          0     0.0001         0
     612    N  202   bs    N    0          0     0.0001         0
     613    N  202  ref    N    0          0     0.0001         0
     614    N  203  COM    O    0          0     0.0001         0
     615    N  203   bs    N    0          0     0.0001         0
     616    N  203  ref    N    0          0     0.0001         0
     617    N  204  COM    O    0          0     0.0001         0
     618    N  204   bs    N    0          0     0.0001         0
     619    N  204  ref    N    0          0     0.0001         0
     620    N  205  COM    O    0          0     0.0001         0
     621    N  205   bs    N    0          0     0.0001         0
     622    N  205  ref    N    0          0     0.0001         0
     623    N  206  COM    O    0          0     0.0001         0
     624    N  206   bs    N    0          0     0.0001         0
     625    N  206  ref    N    0          0     0.0001         0
     626    N  207  COM    O    0          0     0.0001         0
     627    N  207   bs    N    0          0     0.0001         0
     628    N  207  ref    N    0          0     0.0001         0
     629    N  208  COM    O    0          0     0.0001         0
     630    N  208   bs    N    0          0     0.0001         0
     631    N  208  ref    N    0          0     0.0001         0
     632    N  209  COM    O    0          0     0.0001         0
     633    N  209   bs    N    0          0     0.0001         0
     634    N  209  ref    N    0          0     0.0001         0
     635    N  210  COM    O    0          0     0.0001         0
     636    N  210   bs    N    0          0     0.0001         0
     637    N  210  ref    N    0          0     0.0001         0
     638    N  211  COM    O    0          0     0.0001         0
     639    N  211   bs    N    0          0     0.0001         0
     640    N  211  ref    N    0          0     0.0001         0
     641    N  212  COM    O    0          0     0.0001         0
     642    N  212   bs    N    0          0     0.0001         0
     643    N  212  ref    N    0          0     0.0001         0
     644    N  213  COM    O    0          0     0.0001         0
     645    N  213   bs    N    0          0     0.0001         0
     646    N  213  ref    N    0          0     0.0001         0
     647    N  214  COM    O    0          0     0.0001         0
     648    N  214   bs    N    0          0     0.0001         0
     649    N  214  ref    N    0          0     0.0001         0
     650    N  215  COM    O    0          0     0.0001         0
     651    N  215   bs    N    0          0     0.0001         0
     652    N  215  ref    N    0          0     0.0001         0
     653    N  216  COM    O    0          0     0.0001         0
     654    N  216   bs    N    0          0     0.0001         0
     655    N  216  ref    N    0          0     0.0001         0
     656    N  217  COM    O    0          0     0.0001         0
     657    N  217   bs    N    0          0     0.0001         0
     658    N  217  ref    N    0          0     0.0001         0
     659    N  218  COM    O    0          0     0.0001         0
     660    N  218   bs    N    0          0     0.0001         0
     661    N  218  ref    N    0          0     0.0001         0
     662    N  219  COM    O    0          0     0.0001         0
     663    N  219   bs    N    0          0     0.0001         0
     664    N  219  ref    N    0          0     0.0001         0
     665    N  220  COM    O    0          0     0.0001         0
     666    N  220   bs    N    0          0     0.0001         0
     667    N  220  ref    N    0          0     0.0001         0
     668    N  221  COM    O    0          0     0.0001         0
     669    N  221   bs    N    0          0     0.0001         0
     670    N  221  ref    N    0          0     0.0001         0
     671    N  222  COM    O    0          0     0.0001         0
     672    N  222   bs    N    0          0     0.0001         0
     673    N  222  ref    N    0          0     0.0001         0
     674    N  223  COM    O    0          0     0.0001         0
     675    N  223   bs    N    0          0     0.0001         0
     676    N  223  ref    N    0          0     0.0001         0
     677    N  224  COM    O    0          0     0.0001         0
     678    N  224   bs    N    0          0     0.0001         0
     679    N  224  ref    N    0          0     0.0001         0
     680    N  225  COM    O    0          0     0.0001         0
     681    N  225   bs    N    0          0     0.0001         0
     682    N  225  ref    N    0          0     0.0001         0
     683    N  226  COM    O    0          0     0.0001         0
     684    N  226   bs    N    0          0     0.0001         0
     685    N  226  ref    N    0          0     0.0001         0
     686    N  227  COM    O    0          0     0.0001         0
     687    N  227   bs    N    0          0     0.0001         0
     688    N  227  ref    N    0          0     0.0001         0
     689    N  228  COM    O    0          0     0.0001         0
     690    N  228   bs    N    0          0     0.0001         0
     691    N  228  ref    N    0          0     0.0001         0
     692    N  229  COM    O    0          0     0.0001         0
     693    N  229   bs    N    0          0     0.0001         0
     694    N  229  ref    N    0          0     0.0001         0
     695    N  230  COM    O    0          0     0.0001         0
     696    N  230   bs    N    0          0     0.0001         0
     697    N  230  ref    N    0          0     0.0001         0
     698    N  231  COM    O    0          0     0.0001         0
     699    N  231   bs    N    0          0     0.0001         0
     700    N  231  ref    N    0          0     0.0001         0
     701    N  232  COM    O    0          0     0.0001         0
     702    N  232   bs    N    0          0     0.0001         0
     703    N  232  ref    N    0          0     0.0001         0
     704    N  233  COM    O    0          0     0.0001         0
     705    N  233   bs    N    0          0     0.0001         0
     706    N  233  ref    N    0          0     0.0001         0
     707    N  234  COM    O    0          0     0.0001         0
     708    N  234   bs    N    0          0     0.0001         0
     709    N  234  ref    N    0          0     0.0001         0
     710    N  235  COM    O    0          0     0.0001         0
     711    N  235   bs    N    0          0     0.0001         0
     712    N  235  ref    N    0          0     0.0001         0
     713    N  236  COM    O    0          0     0.0001         0
     714    N  236   bs    N    0          0     0.0001         0
     715    N  236  ref    N    0          0     0.0001         0
     716    N  237  COM    O    0          0     0.0001         0
     717    N  237   bs    N    0          0     0.0001         0
     718    N  237  ref    N    0          0     0.0001         0
     719    N  238  COM    O    0          0     0.0001         0
     720    N  238   bs    N    0          0     0.0001         0
     721    N  238  ref    N    0          0     0.0001         0
     722    N  239  COM    O    0          0     0.0001         0
     723    N  239   bs    N    0          0     0.0001         0
     724    N  239  ref    N    0          0     0.0001         0
     725    N  240  COM    O    0          0     0.0001         0
     726    N  240   bs    N    0          0     0.0001         0
     727    N  240  ref    N    0          0     0.0001         0
     728    N  241  COM    O    0          0     0.0001         0
     729    N  241   bs    N    0          0     0.0001         0
     730    N  241  ref    N    0          0     0.0001         0


       0 !NBOND: bonds
